14
energy=-290.03981694 cutoff=-1.00000000 nneightol=1.20000000 pbc="T T T" Lattice="14.38200000       0.00000000       0.00000000       0.00000000      11.77800000       0.00000000       0.00000000       0.00000000      13.47600000" Properties=species:S:1:pos:R:3:Z:I:1:mass:R:1:travel:I:3:move_mask:I:1:damp_mask:I:1:thermostat_region:I:1:avg_ke:R:1:velo:R:3:acc:R:3:avgpos:R:3:oldpos:R:3:force:R:3
C               1.00169481      0.99875807      0.00120790       6   1244.85241814       0       0       0       1       1       1      0.00036494      0.01692864     -0.01241624      0.01207753     -0.00038895      0.00006117     -0.00002837      1.00000169      0.99999876      0.00000121      1.00000000      1.00000000      0.00000000     -0.48418081      0.07614256     -0.03532204
C              -0.52090621      1.00014445     -0.00026969       6   1244.85241814       0       0       0       1       1       1      0.00005658     -0.00903767      0.00145016     -0.00267585      0.00048821      0.00011413      0.00042115     -0.52000091      1.00000014     -0.00000027     -0.52000000      1.00000000      0.00000000      0.60775544      0.14207723      0.52426459
C              -1.07972341      1.00133463      1.42043458       6   1244.85241814       0       0       0       1       1       1      0.00044886     -0.01725509      0.01334142     -0.01567720     -0.00042042     -0.00009819     -0.00046007     -1.07800172      1.00000133      1.42199844     -1.07800000      1.00000000      1.42200000     -0.52335648     -0.12223020     -0.57272083
C              -2.59864745      0.99793208      1.42094717       6   1244.85241814       0       0       0       1       1       1      0.00007691      0.00353951     -0.00068201     -0.01051858      0.00028079     -0.00005602      0.00019381     -2.59899965      0.99799993      1.42199895     -2.59900000      0.99800000      1.42200000      0.34953650     -0.06974007      0.24126525
H               1.38011844      1.00054153     -1.02413311       1    104.47183727       0       0       0       1       1       1      0.00006739      0.02121852     -0.00459405      0.02862546      0.00068295     -0.00018699     -0.00086795      1.37800212      1.00099954     -1.02699713      1.37800000      1.00100000     -1.02700000      0.07134866     -0.01953508     -0.09067649
H               1.39140457      0.11312762      0.51153812       1    104.47183727       0       0       0       1       1       1      0.00024778      0.00406840      0.02124847      0.06540444      0.00045481     -0.00055480      0.00046532      1.39100040      0.11100213      0.50500653      1.39100000      0.11100000      0.50500000      0.04751476     -0.05796064      0.04861252
H               1.38902894      1.88918151      0.50604113       1    104.47183727       0       0       0       1       1       1      0.00004751     -0.01968350      0.01183401     -0.01955980      0.00054200      0.00037785      0.00057808      1.39099803      1.88800118      0.50799804      1.39100000      1.88800000      0.50800000      0.05662425      0.03947504      0.06039349
H              -0.87454748      0.11639286     -0.53702300       1    104.47183727       0       0       0       1       1       1      0.00018726      0.04442809     -0.00619292      0.03967883     -0.00194194     -0.00243037     -0.00182390     -0.87899555      0.11699939     -0.54099602     -0.87900000      0.11700000     -0.54100000     -0.20287824     -0.25390566     -0.19054570
H              -0.88200490      1.88545423     -0.54299473       1    104.47183727       0       0       0       1       1       1      0.00009971     -0.03009641      0.02458480     -0.01999068     -0.00094831      0.00084936     -0.00086820     -0.87900300      1.88300245     -0.54100199     -0.87900000      1.88300000     -0.54100000     -0.09907207      0.08873402     -0.09070257
H              -0.72553225      1.87922422      1.96258142       1    104.47183727       0       0       0       1       1       1      0.00027932     -0.05522151     -0.04759991      0.00590429      0.00201980      0.00315851      0.00180151     -0.72000553      1.88399523      1.96200058     -0.72000000      1.88400000      1.96200000      0.21101234      0.32997504      0.18820681
H              -0.71610830      0.12032553      1.96129898       1    104.47183727       0       0       0       1       1       1      0.00004721      0.00897877      0.02316013     -0.01694671      0.00123497     -0.00190336      0.00127072     -0.71699911      0.11800232      1.96299830     -0.71700000      0.11800000      1.96300000      0.12901974     -0.19884793      0.13275468
H              -2.99128009      1.88462881      0.91652086       1    104.47183727       0       0       0       1       1       1      0.00003418     -0.00283289     -0.00368254      0.02516255     -0.00063943      0.00058680     -0.00092178     -2.99100028      1.88499963      0.91400252     -2.99100000      1.88500000      0.91400000     -0.06680283      0.06130412     -0.09629958
H              -2.97260008      1.00279247      2.45404020       1    104.47183727       0       0       0       1       1       1      0.00027412      0.04398511      0.02791501      0.05036294     -0.00028158     -0.00019288     -0.00078112     -2.97699560      1.00000279      2.44900504     -2.97700000      1.00000000      2.44900000     -0.02941754     -0.02015089     -0.08160545
H              -2.98354083      0.10331475      0.91914896       1    104.47183727       0       0       0       1       1       1      0.00047853      0.05455958     -0.06685023      0.04147157     -0.00064231      0.00004463     -0.00036014     -2.98899454      0.10999332      0.91500415     -2.98900000      0.11000000      0.91500000     -0.06710371      0.00466246     -0.03762467
14
energy=-289.04157161 cutoff=-1.00000000 nneightol=1.20000000 pbc="T T T" Lattice="14.38200000       0.00000000       0.00000000       0.00000000      11.77800000       0.00000000       0.00000000       0.00000000      13.47600000" Properties=species:S:1:pos:R:3:Z:I:1:mass:R:1:travel:I:3:move_mask:I:1:damp_mask:I:1:thermostat_region:I:1:avg_ke:R:1:velo:R:3:acc:R:3:avgpos:R:3:oldpos:R:3:force:R:3
C               1.26158012      1.11206320      0.84978040       6   1244.85241814       0       0       0       1       1       1      0.07266624      0.00183913      0.00723231      0.00430316     -0.00224477     -0.00059371     -0.00025632      1.08429407      0.95977994      0.33673337      1.00000000      1.00000000      0.00000000     -2.79441226     -0.73907971     -0.31908373
C              -0.24697725      0.43758457      0.50239151       6   1244.85241814       0       0       0       1       1       1      0.10790130      0.00845008     -0.01141097      0.01372915      0.00072169      0.00179324      0.00165504     -0.41245989      0.86397698      0.12170863     -0.52000000      1.00000000      0.00000000      0.89840246      2.23231566      2.06028639
C              -1.42060842      1.50079366      0.64857690       6   1244.85241814       0       0       0       1       1       1      0.10313710     -0.00368181     -0.00257365     -0.01534622      0.00106222      0.00173540      0.00032585     -1.22752284      1.30546254      1.16169838     -1.07800000      1.00000000      1.42200000      1.32230354      2.16031671      0.40563570
C              -2.78808750      0.91538289      0.80614322       6   1244.85241814       0       0       0       1       1       1      0.08418089     -0.00658991      0.00177337     -0.00977104     -0.00000437      0.00002689     -0.00152431     -2.64652329      0.88844985      1.21330595     -2.59900000      0.99800000      1.42200000     -0.00544502      0.03347981     -1.89753585
H               2.10202893      0.42663560      0.63422761       1    104.47183727       0       0       0       1       1       1      0.04627702      0.01947639      0.03535994      0.03563793     -0.00474375     -0.00057745      0.00193706      1.57624387      0.45987355     -0.29071470      1.37800000      1.00100000     -1.02700000     -0.49558776     -0.06032705      0.20236836
H               1.20563470      1.36769069      1.92091634       1    104.47183727       0       0       0       1       1       1      0.02954725     -0.01027354      0.00782703      0.00507925      0.00314266     -0.00233878     -0.00101154      1.32530221      0.63981474      1.17450299      1.39100000      0.11100000      0.50500000      0.32831979     -0.24433685     -0.10567752
H               1.51728667      2.07019415      0.34673169       1    104.47183727       0       0       0       1       1       1      0.01980332     -0.01887008      0.01289405      0.02519153     -0.00607902     -0.00478292     -0.00166073      1.49718052      1.83911755      0.27719716      1.39100000      1.88800000      0.50800000     -0.63508634     -0.49967998     -0.17349969
H              -0.51240107     -0.34048365      1.33703211       1    104.47183727       0       0       0       1       1       1      0.09185581      0.02437667     -0.02055881     -0.00134356      0.00755940      0.00766959     -0.01420942     -0.71390082     -0.08050860     -0.03023337     -0.87900000      0.11700000     -0.54100000      0.78974468      0.80125604     -1.48448390
H              -0.28465842      0.03402187     -0.50402497       1    104.47183727       0       0       0       1       1       1      0.07191991     -0.03916648     -0.04725871     -0.01053827      0.00168650     -0.00511312     -0.00352986     -0.62145720      1.34750317     -0.68097717     -0.87900000      1.88300000     -0.54100000      0.17619204     -0.53417666     -0.36877078
H              -1.51026172      2.38686329     -0.11492594       1    104.47183727       0       0       0       1       1       1      0.08347987     -0.02355389     -0.01150256     -0.01853706      0.00691983     -0.01649327      0.00450284     -1.11871880      2.21844126      1.14934273     -0.72000000      1.88400000      1.96200000      0.72292738     -1.72308183      0.47041945
H              -1.24330598      2.09047585      1.58869490       1    104.47183727       0       0       0       1       1       1      0.04710470      0.00821570     -0.00638858      0.01702257      0.00244196     -0.00278629     -0.00231049     -0.87411949      1.02008395      1.93786809     -0.71700000      0.11800000      1.96300000      0.25511654     -0.29108851     -0.24138107
H              -2.87934719      0.18679507     -0.01718835       1    104.47183727       0       0       0       1       1       1      0.07607464      0.00870036      0.00639970      0.05292280     -0.00421057     -0.00305851      0.00392385     -3.01289185      1.13968135      0.46070842     -2.99100000      1.88500000      0.91400000     -0.43988610     -0.31952867      0.40993148
H              -3.55300240      1.70002874      0.57718079       1    104.47183727       0       0       0       1       1       1      0.09438660      0.06302988      0.05343096     -0.00307250      0.00343822     -0.00490188      0.00631550     -3.22166882      1.18558722      1.92657691     -2.97700000      1.00000000      2.44900000      0.35919689     -0.51210832      0.65979176
H              -2.86861186      0.45817339      1.78052231       1    104.47183727       0       0       0       1       1       1      0.05627049     -0.03214336      0.02912439     -0.01794069     -0.00461163     -0.00290950      0.00365648     -2.76586571     -0.00696734      1.30848297     -2.98900000      0.11000000      0.91500000     -0.48178583     -0.30396066      0.38199939
14
energy=-288.84435074 cutoff=-1.00000000 nneightol=1.20000000 pbc="T T T" Lattice="14.38200000       0.00000000       0.00000000       0.00000000      11.77800000       0.00000000       0.00000000       0.00000000      13.47600000" Properties=species:S:1:pos:R:3:Z:I:1:mass:R:1:travel:I:3:move_mask:I:1:damp_mask:I:1:thermostat_region:I:1:avg_ke:R:1:velo:R:3:acc:R:3:avgpos:R:3:oldpos:R:3:force:R:3
C               1.03185255      1.14964301      1.49510848       6   1244.85241814       0       0       0       1       1       1      0.08552361     -0.00936292     -0.00491766      0.00867438     -0.00027802      0.00047751     -0.00066826      1.07356233      1.11442910      0.91812529      1.00000000      1.00000000      0.00000000     -0.34609420      0.59443354     -0.83188959
C              -0.51548643      0.93838163      1.35679608       6   1244.85241814       0       0       0       1       1       1      0.15562866      0.00211144      0.01142452      0.01028430     -0.00085545      0.00138960      0.00069721     -0.35177740      0.69762838      0.69447840     -0.52000000      1.00000000      0.00000000     -1.06490974      1.72984840      0.86791994
C              -1.14439091      1.16320210     -0.02829683       6   1244.85241814       0       0       0       1       1       1      0.10611189      0.00874549      0.00302341      0.00158347      0.00136387     -0.00116512      0.00037681     -1.23486490      1.29438797      0.53089740     -1.07800000      1.00000000      1.42200000      1.69781129     -1.45040701      0.46907019
C              -2.55413413      0.73321610     -0.00269710       6   1244.85241814       0       0       0       1       1       1      0.11032744      0.00020684     -0.01123446     -0.01025888     -0.00100074      0.00090302      0.00129184     -2.68218945      0.89053403      0.67879650     -2.59900000      0.99800000      1.42200000     -1.24577800      1.12412695      1.60814572
H               1.36975179      1.24002564      2.55636477       1    104.47183727       0       0       0       1       1       1      0.09303612      0.01589196      0.03932731     -0.01446348     -0.00295537     -0.00618607     -0.00510136      1.63451032      0.60833189      0.96953249      1.37800000      1.00100000     -1.02700000     -0.30875332     -0.64627035     -0.53294818
H               1.49686706      2.07966545      1.02537627       1    104.47183727       0       0       0       1       1       1      0.05516854     -0.02631563     -0.02439504     -0.06293307     -0.01109796     -0.00648801      0.00237129      1.20228367      1.48024481      1.56760405      1.39100000      0.11100000      0.50500000     -1.15942446     -0.67781401      0.24773307
H               1.52690540      0.32006759      0.90912608       1    104.47183727       0       0       0       1       1       1      0.06193221     -0.03710792     -0.00881638     -0.01037904     -0.00251934      0.00397747      0.00907388      1.45556275      1.56425152      0.43019384      1.39100000      1.88800000      0.50800000     -0.26320048      0.41553317      0.94796517
H              -1.29298650      1.59081869      1.98964206       1    104.47183727       0       0       0       1       1       1      0.13233414     -0.00942121     -0.00765379      0.03054644      0.02133856     -0.00406110     -0.00319727     -0.72346027      0.32039447      1.18486375     -0.87900000      0.11700000     -0.54100000      2.22927812     -0.42427035     -0.33402463
H              -0.81097983     -0.04206893      1.77878026       1    104.47183727       0       0       0       1       1       1      0.10201741     -0.01816633      0.04091950      0.00393559      0.00436203     -0.00308951     -0.00461085     -0.40151513      0.29354771      0.19421450     -0.87900000      1.88300000     -0.54100000      0.45570957     -0.32276630     -0.48170396
H              -0.61982291      0.58427169     -0.84250420       1    104.47183727       0       0       0       1       1       1      0.07452037      0.03218169     -0.02677906      0.01432748     -0.00100192      0.00525494      0.00433554     -1.01554547      1.54601129     -0.09136718     -0.72000000      1.88400000      1.96200000     -0.10467276      0.54899313      0.45294212
H              -1.23954071      2.18917929     -0.27832166       1    104.47183727       0       0       0       1       1       1      0.08463277      0.03535658     -0.01753993     -0.01573996      0.00919599      0.01512179     -0.00384883     -1.03945868      1.83018042      0.92845251     -0.71700000      0.11800000      1.96300000      0.96072176      1.57980101     -0.40209396
H              -2.52078276     -0.28733313      0.40865406       1    104.47183727       0       0       0       1       1       1      0.11347026     -0.01990442      0.02823783     -0.02519168     -0.00957790     -0.00378873     -0.01069098     -2.91653342      0.33716168      0.26881465     -2.99100000      1.88500000      0.91400000     -1.00062037     -0.39581602     -1.11690616
H              -2.93046074      1.15523237     -0.95024079       1    104.47183727       0       0       0       1       1       1      0.11638178      0.01254476     -0.01909883     -0.00016507     -0.00676096     -0.01422625     -0.00139273     -3.28886078      1.37071405      0.56063714     -2.97700000      1.00000000      2.44900000     -0.70632994     -1.48624243     -0.14550093
H              -3.14779226      1.32868412      0.78524852       1    104.47183727       0       0       0       1       1       1      0.04684105     -0.00532619      0.01610490     -0.04246938      0.00819611     -0.00563932     -0.00716661     -2.91960397      0.65832236      1.35265311     -2.98900000      0.11000000      0.91500000      0.85626254     -0.58914974     -0.74870880
